LAMMPS data file 

72 atoms
3 atom types

0 bonds
1 bond types

5 extra bond per atom
10 extra angle per atom
25 extra dihedral per atom
25 extra improper per atom

0.0 7.7839999 xlo xhi
0.0 8.1474695 ylo yhi
0.0 10.3800001 zlo zhi
-0.9354906 0.0 0.0 xy xz yz

Atoms # full

1 1 1 0.0 -0.787 7.8049999 0.449
2 1 2 0.0 0.158 7.994 0.621
3 2 1 0.0 6.8179999 6.6479998 9.844
4 2 2 0.0 5.8779998 6.3740001 9.8129998
5 3 1 0.0 -0.496 7.0310001 8.4619999
6 3 2 0.0 0.486 7.0700002 8.4700003
7 4 1 0.0 7.7010002 0.244 8.0450001
8 4 2 0.0 6.7430001 0.143 7.863
9 5 1 0.0 0.054 1.295 9.1009998
10 5 2 0.0 1.003 1.484 9.2489996
11 6 1 0.0 7.1199999 2.599 8.7919998
12 6 2 0.0 6.2059999 2.411 8.5340004
13 6 2 0.0 7.105 3.155 9.5860005
14 7 3 0.0 -0.167 5.5890003 10.3769999
15 8 3 0.0 6.883 6.0209999 7.5159998
16 9 3 0.0 0.534 0.701 6.8260002
17 10 3 0.0 7.2550001 0.807 10.3249998
18 11 3 0.0 -0.003 3.283 7.7430001
19 12 1 0.0 3.7230001 3.707 3.1589999
20 12 2 0.0 4.6880002 3.7609999 3.322
21 12 1 0.0 3.4000001 2.589 2.174
22 12 2 0.0 2.4230001 2.491 2.1300001
23 12 1 0.0 3.9030002 2.958 0.7940001
24 12 2 0.0 4.877 3.0580001 0.823
25 12 1 0.0 3.26 4.2859998 0.389
26 12 2 0.0 2.2909999 4.1869998 0.3
27 12 1 0.0 3.596 5.356 1.441
28 12 2 0.0 4.553 5.5650001 1.4220001
29 12 1 0.0 2.7560001 6.6399999 1.168
30 12 2 0.0 1.867 6.3899999 0.879
31 12 2 0.0 2.675 7.152 1.989
32 12 3 0.0 3.955 1.352 2.616
33 13 3 0.0 3.5650001 1.898 10.2959995
34 14 3 0.0 3.8340001 4.7740002 9.5430002
35 12 3 0.0 3.207 4.9460002 2.7390001
36 12 3 0.0 3.3640001 7.4470001 0.176
37 15 1 0.0 7.6360002 0.342 5.639
38 16 2 0.0 6.691 0.153 5.8109999
39 17 1 0.0 0.03 1.499 4.6539998
40 18 2 0.0 0.97 1.7740001 4.6230002
41 19 1 0.0 7.3439999 1.1160001 3.2720001
42 20 2 0.0 6.3629999 1.078 3.28
43 21 1 0.0 -0.853 7.903 2.8540002
44 22 2 0.0 0.105 8.0039997 2.6730001
45 23 1 0.0 6.7950001 6.8520002 3.911
46 24 2 0.0 5.8460002 6.6640001 4.059
47 25 1 0.0 -0.271 5.5479999 3.602
48 26 2 0.0 0.643 5.737 3.3440001
49 27 2 0.0 -0.256 4.993 4.3959999
50 28 3 0.0 7.0149999 2.5580001 5.1869998
51 29 3 0.0 -0.034 2.1259999 2.326
52 30 3 0.0 6.3140001 7.4470001 1.6360001
53 31 3 0.0 3.283 6.2490001 5.106
54 32 3 0.0 -0.407 7.3410001 5.1350002
55 33 3 0.0 6.8520002 4.8639998 2.553
56 34 1 0.0 3.125 4.4400001 8.349
57 35 2 0.0 2.161 4.3870001 8.5120001
58 36 1 0.0 3.448 5.5580001 7.3639999
59 37 2 0.0 4.4260001 5.6560002 7.3200002
60 38 1 0.0 2.9460002 5.1900001 5.9840002
61 39 2 0.0 1.972 5.0900002 6.013
62 40 1 0.0 3.589 3.862 5.579
63 41 2 0.0 4.5570002 3.96 5.4899998
64 42 1 0.0 3.2520001 2.7909999 6.6310001
65 43 2 0.0 2.296 2.583 6.612
66 44 1 0.0 4.0929999 1.507 6.3579998
67 45 2 0.0 4.982 1.757 6.0689998
68 46 2 0.0 4.1739998 0.996 7.1789999
69 47 3 0.0 2.8940002 6.7950001 7.8060003
70 48 3 0.0 3.0139999 3.3729999 4.3530002
71 49 3 0.0 3.6410001 3.2019999 7.929
72 50 3 0.0 3.4849999 0.701 5.3660002

Masses 
 
1 12.0107 
2 1.00794 
3 15.9994 

Pair Coeffs 
 
1    0.100000     2.00000 
2    0.100000     2.00000 
3    0.100000     2.00000 

Bond Coeffs 
 
1    350.000     1.00000 
