LAMMPS data file generated by OpenBabel
72 atoms
50 bonds
71 angles
97 dihedrals
0 impropers
3 atom types
3 bond types
7 angle types
12 dihedral types
0 improper types
  -1.35300   10.87700 xlo xhi
  -1.35300   10.87700 ylo yhi
  -1.35300   10.87700 zlo zhi



Masses

1 12.0107 # C
2 1.00794 # H
3 15.9994 # O


Atoms

1       1    1    0.00000   -0.78700    7.80500    0.44900 #   C
2       1    2    0.41000    0.15800    7.99400    0.62100 #   H
3       2    1    0.00000    6.81800    6.64800    9.84400 #   C
4       2    2    0.41000    5.87800    6.37400    9.81300 #   H
5       3    1    0.00000   -0.49600    7.03100    8.46200 #   C
6       3    2    0.41000    0.48600    7.07000    8.47000 #   H
7       4    1    0.00000    7.70100    0.24400    8.04500 #   C
8       4    2    0.41000    6.74300    0.14300    7.86300 #   H
9       5    1    0.00000    0.05400    1.29500    9.10100 #   C
10      5    2    0.41000    1.00300    1.48400    9.24900 #   H
11      6    1    0.00000    7.12000    2.59900    8.79200 #   C
12      6    2    0.41000    7.10500    3.15500    9.58600 #   H
13      6    2    0.41000    6.20600    2.41100    8.53400 #   H
14      7    3   -0.82000   -0.16700    5.58900   10.37700 #   O
15      8    3   -0.82000    6.88300    6.02100    7.51600 #   O
16      9    3   -0.82000    0.53400    0.70100    6.82600 #   O
17     10    3   -0.82000    7.25500    0.80700   10.32500 #   O
18     11    3   -0.82000   -0.00300    3.28300    7.74300 #   O
19     12    1    0.00000    3.72300    3.70700    3.15900 #   C
20     12    3   -0.82000    3.01400    3.37300    4.35300 #   O
21     12    1    0.00000    3.58900    3.86200    5.57900 #   C
22     12    1    0.00000    3.25200    2.79100    6.63100 #   C
23     12    3   -0.82000    3.64100    3.20200    7.92900 #   O
24     12    1    0.00000    3.12500    4.44000    8.34900 #   C
25     12    3   -0.82000    3.83400    4.77400    9.54300 #   O
26     12    2    0.41000    2.16100    4.38700    8.51200 #   H
27     12    1    0.00000    3.44800    5.55800    7.36400 #   C
28     12    3   -0.82000    2.89400    6.79500    7.80600 #   O
29     12    2    0.41000    4.42600    5.65600    7.32000 #   H
30     12    2    0.41000    2.29600    2.58300    6.61200 #   H
31     12    1    0.00000    4.09300    1.50700    6.35800 #   C
32     12    2    0.41000    4.17400    0.99600    7.17900 #   H
33     12    2    0.41000    4.98200    1.75700    6.06900 #   H
34     12    3   -0.82000    3.48500    0.70100    5.36600 #   O
35     12    1    0.00000    2.94600    5.19000    5.98400 #   C
36     12    2    0.41000    1.97200    5.09000    6.01300 #   H
37     12    3   -0.82000    3.28300    6.24900    5.10600 #   O
38     12    2    0.41000    4.55700    3.96000    5.49000 #   H
39     12    2    0.41000    4.68800    3.76100    3.32200 #   H
40     12    3   -0.82000    3.20700    4.94600    2.73900 #   O
41     12    1    0.00000    3.59600    5.35600    1.44100 #   C
42     12    2    0.41000    4.55300    5.56500    1.42200 #   H
43     12    1    0.00000    2.75600    6.64000    1.16800 #   C
44     12    2    0.41000    2.67500    7.15200    1.98900 #   H
45     12    2    0.41000    1.86700    6.39000    0.87900 #   H
46     12    3   -0.82000    3.36400    7.44700    0.17600 #   O
47     12    1    0.00000    3.26000    4.28600    0.38900 #   C
48     12    2    0.41000    2.29100    4.18700    0.30000 #   H
49     12    1    0.00000    3.90300    2.95800    0.79400 #   C
50     12    2    0.41000    4.87700    3.05800    0.82300 #   H
51     12    1    0.00000    3.40000    2.58900    2.17400 #   C
52     12    3   -0.82000    3.95500    1.35200    2.61600 #   O
53     12    2    0.41000    2.42300    2.49100    2.13000 #   H
54     13    3   -0.82000    3.56500    1.89800   10.29600 #   O
55     14    1    0.00000    7.63600    0.34200    5.63900 #   C
56     14    2    0.41000    6.69100    0.15300    5.81100 #   H
57     15    1    0.00000    0.03000    1.49900    4.65400 #   C
58     15    2    0.41000    0.97000    1.77400    4.62300 #   H
59     16    1    0.00000    7.34400    1.11600    3.27200 #   C
60     16    2    0.41000    6.36300    1.07800    3.28000 #   H
61     17    1    0.00000   -0.85300    7.90300    2.85400 #   C
62     17    2    0.41000    0.10500    8.00400    2.67300 #   H
63     18    1    0.00000    6.79500    6.85200    3.91100 #   C
64     18    2    0.41000    5.84600    6.66400    4.05900 #   H
65     19    1    0.00000   -0.27100    5.54800    3.60200 #   C
66     19    2    0.41000   -0.25600    4.99300    4.39600 #   H
67     19    2    0.41000    0.64300    5.73700    3.34400 #   H
68     20    3   -0.82000    7.01500    2.55800    5.18700 #   O
69     21    3   -0.82000   -0.03400    2.12600    2.32600 #   O
70     22    3   -0.82000    6.31400    7.44700    1.63600 #   O
71     23    3   -0.82000   -0.40700    7.34100    5.13500 #   O
72     24    3   -0.82000    6.85200    4.86400    2.55300 #   O


Bonds

1       2    1    2 #  C: H
2       2    3    4 #  C: H
3       2    5    6 #  C: H
4       2    7    8 #  C: H
5       2    9   10 #  C: H
6       2   11   12 #  C: H
7       2   11   13 #  C: H
8       1   19   21 #  C: C
9       3   35   19 #  O: C
10      2   19   20 #  C: H
11      1   21   23 #  C: C
12      2   21   22 #  C: H
13      3   32   21 #  O: C
14      1   23   25 #  C: C
15      2   23   24 #  C: H
16      2   25   26 #  C: H
17      1   25   27 #  C: C
18      1   27   29 #  C: C
19      2   27   28 #  C: H
20      3   35   27 #  O: C
21      3   36   29 #  O: C
22      2   29   30 #  C: H
23      2   29   31 #  C: H
24      2   43   44 #  C: H
25      3   70   19 #  O: C
26      2   41   42 #  C: H
27      2   47   48 #  C: H
28      2   47   49 #  C: H
29      2   45   46 #  C: H
30      3   70   62 #  O: C
31      2   39   40 #  C: H
32      3   53   60 #  O: C
33      3   72   66 #  O: C
34      2   62   63 #  C: H
35      1   62   60 #  C: C
36      1   62   64 #  C: C
37      2   37   38 #  C: H
38      2   60   61 #  C: H
39      1   60   58 #  C: C
40      2   66   67 #  C: H
41      1   66   64 #  C: C
42      2   66   68 #  C: H
43      2   64   65 #  C: H
44      3   71   64 #  O: C
45      2   58   59 #  C: H
46      3   69   58 #  O: C
47      1   58   56 #  C: C
48      3   71   56 #  O: C
49      2   56   57 #  C: H
50      3   34   56 #  O: C


Angles

1       4   13   11   12 #  H: C: H
2       5   35   19   21 #  O: C: C
3       2   21   19   20 #  C: C: H
4       5   70   19   21 #  O: C: C
5       6   35   19   20 #  O: C: H
6       7   70   19   35 #  O: C: O
7       6   70   19   20 #  O: C: H
8       1   23   21   19 #  C: C: C
9       2   19   21   22 #  C: C: H
10      5   32   21   19 #  O: C: C
11      2   23   21   22 #  C: C: H
12      5   32   21   23 #  O: C: C
13      6   32   21   22 #  O: C: H
14      1   25   23   21 #  C: C: C
15      2   21   23   24 #  C: C: H
16      2   25   23   24 #  C: C: H
17      2   23   25   26 #  C: C: H
18      1   27   25   23 #  C: C: C
19      2   27   25   26 #  C: C: H
20      1   29   27   25 #  C: C: C
21      2   25   27   28 #  C: C: H
22      5   35   27   25 #  O: C: C
23      2   29   27   28 #  C: C: H
24      5   35   27   29 #  O: C: C
25      6   35   27   28 #  O: C: H
26      5   36   29   27 #  O: C: C
27      2   27   29   30 #  C: C: H
28      2   27   29   31 #  C: C: H
29      6   36   29   30 #  O: C: H
30      6   36   29   31 #  O: C: H
31      4   31   29   30 #  H: C: H
32      3   27   35   19 #  C: O: C
33      4   49   47   48 #  H: C: H
34      5   71   56   58 #  O: C: C
35      2   58   56   57 #  C: C: H
36      5   34   56   58 #  O: C: C
37      6   71   56   57 #  O: C: H
38      7   71   56   34 #  O: C: O
39      6   34   56   57 #  O: C: H
40      2   60   58   59 #  C: C: H
41      5   69   58   60 #  O: C: C
42      1   60   58   56 #  C: C: C
43      6   69   58   59 #  O: C: H
44      2   56   58   59 #  C: C: H
45      5   69   58   56 #  O: C: C
46      5   53   60   62 #  O: C: C
47      6   53   60   61 #  O: C: H
48      5   53   60   58 #  O: C: C
49      2   62   60   61 #  C: C: H
50      1   62   60   58 #  C: C: C
51      2   58   60   61 #  C: C: H
52      6   70   62   63 #  O: C: H
53      5   70   62   60 #  O: C: C
54      5   70   62   64 #  O: C: C
55      2   60   62   63 #  C: C: H
56      2   64   62   63 #  C: C: H
57      1   64   62   60 #  C: C: C
58      1   66   64   62 #  C: C: C
59      2   62   64   65 #  C: C: H
60      5   71   64   62 #  O: C: C
61      2   66   64   65 #  C: C: H
62      5   71   64   66 #  O: C: C
63      6   71   64   65 #  O: C: H
64      6   72   66   67 #  O: C: H
65      5   72   66   64 #  O: C: C
66      6   72   66   68 #  O: C: H
67      2   64   66   67 #  C: C: H
68      4   68   66   67 #  H: C: H
69      2   64   66   68 #  C: C: H
70      3   62   70   19 #  C: O: C
71      3   64   71   56 #  C: O: C


Dihedrals

1       8   35   19   21   23 #  O: C: C: C
2       9   35   19   21   22 #  O: C: C: H
3      10   32   19   21   35 #  O: C: C: O
4       2   23   19   21   20 #  C: C: C: H
5       7   22   19   21   20 #  H: C: C: H
6       9   32   19   21   20 #  O: C: C: H
7       8   70   19   21   23 #  O: C: C: C
8       9   70   19   21   22 #  O: C: C: H
9      10   32   19   21   70 #  O: C: C: O
10      3   27   19   35   21 #  C: C: O: C
11      4   27   19   35   20 #  C: C: O: H
12     11   70   19   35   27 #  O: C: O: C
13      1   25   21   23   19 #  C: C: C: C
14      2   19   21   23   24 #  C: C: C: H
15      2   25   21   23   22 #  C: C: C: H
16      7   24   21   23   22 #  H: C: C: H
17      8   32   21   23   25 #  O: C: C: C
18      9   32   21   23   24 #  O: C: C: H
19      2   21   23   25   26 #  C: C: C: H
20      1   27   23   25   21 #  C: C: C: C
21      7   26   23   25   24 #  H: C: C: H
22      2   27   23   25   24 #  C: C: C: H
23      1   29   25   27   23 #  C: C: C: C
24      2   23   25   27   28 #  C: C: C: H
25      8   35   25   27   23 #  O: C: C: C
26      2   29   25   27   26 #  C: C: C: H
27      7   28   25   27   26 #  H: C: C: H
28      9   35   25   27   26 #  O: C: C: H
29      8   36   27   29   25 #  O: C: C: C
30      2   25   27   29   30 #  C: C: C: H
31      2   25   27   29   31 #  C: C: C: H
32      9   36   27   29   28 #  O: C: C: H
33      7   30   27   29   28 #  H: C: C: H
34      7   31   27   29   28 #  H: C: C: H
35     10   36   27   29   35 #  O: C: C: O
36      9   35   27   29   30 #  O: C: C: H
37      9   35   27   29   31 #  O: C: C: H
38      3   19   27   35   25 #  C: C: O: C
39      3   19   27   35   29 #  C: C: O: C
40      4   19   27   35   28 #  C: C: O: H
41      3   62   19   70   21 #  C: C: O: C
42     11   35   19   70   62 #  O: C: O: C
43      4   62   19   70   20 #  C: C: O: H
44      6   19   70   62   63 #  C: O: C: H
45      5   60   70   62   19 #  C: O: C: C
46      5   64   70   62   19 #  C: O: C: C
47     10   53   62   60   70 #  O: C: C: O
48      9   70   62   60   61 #  O: C: C: H
49      8   70   62   60   58 #  O: C: C: C
50      9   53   62   60   63 #  O: C: C: H
51      7   61   62   60   63 #  H: C: C: H
52      2   58   62   60   63 #  C: C: C: H
53      8   53   62   60   64 #  O: C: C: C
54      2   64   62   60   61 #  C: C: C: H
55      1   58   62   60   64 #  C: C: C: C
56      8   70   62   64   66 #  O: C: C: C
57      9   70   62   64   65 #  O: C: C: H
58     10   71   62   64   70 #  O: C: C: O
59      2   66   62   64   63 #  C: C: C: H
60      7   65   62   64   63 #  H: C: C: H
61      9   71   62   64   63 #  O: C: C: H
62      1   66   62   64   60 #  C: C: C: C
63      2   60   62   64   65 #  C: C: C: H
64      8   71   62   64   60 #  O: C: C: C
65      9   53   60   58   59 #  O: C: C: H
66     10   69   60   58   53 #  O: C: C: O
67      8   53   60   58   56 #  O: C: C: C
68      2   62   60   58   59 #  C: C: C: H
69      8   69   60   58   62 #  O: C: C: C
70      1   56   60   58   62 #  C: C: C: C
71      7   59   60   58   61 #  H: C: C: H
72      9   69   60   58   61 #  O: C: C: H
73      2   56   60   58   61 #  C: C: C: H
74      8   72   66   64   62 #  O: C: C: C
75      9   72   66   64   65 #  O: C: C: H
76     10   71   66   64   72 #  O: C: C: O
77      2   62   66   64   67 #  C: C: C: H
78      7   65   66   64   67 #  H: C: C: H
79      9   71   66   64   67 #  O: C: C: H
80      2   62   66   64   68 #  C: C: C: H
81      7   65   66   64   68 #  H: C: C: H
82      9   71   66   64   68 #  O: C: C: H
83      3   56   64   71   62 #  C: C: O: C
84      3   56   64   71   66 #  C: C: O: C
85      4   56   64   71   65 #  C: C: O: H
86      8   71   58   56   60 #  O: C: C: C
87      2   60   58   56   57 #  C: C: C: H
88      8   34   58   56   60 #  O: C: C: C
89      9   71   58   56   59 #  O: C: C: H
90      7   57   58   56   59 #  H: C: C: H
91      9   34   58   56   59 #  O: C: C: H
92     10   71   58   56   69 #  O: C: C: O
93      9   69   58   56   57 #  O: C: C: H
94     10   34   58   56   69 #  O: C: C: O
95      5   58   71   56   64 #  C: O: C: C
96      6   64   71   56   57 #  C: O: C: H
97     12   34   71   56   64 #  O: O: C: C
